integrator               = md
dt                       = 0.02
nsteps                   = 500000
nstxout                  = 0 
nstvout                  = 0
nstfout                  = 0
nstlog                   = 100000
nstxout-compressed       = 50000

; FIX 1: Increase compression precision from 1000 to 10000 (0.1 pm precision).
; This removes coordinate rounding noise, giving backward.py cleaner initial centers.
compressed-x-precision   = 10000

cutoff-scheme            = Verlet
nstlist                  = 20
ns_type                  = grid
pbc                      = xyz
verlet-buffer-tolerance  = 0.005

coulombtype              = reaction-field 
rcoulomb                 = 1.1
epsilon_r                = 15    
epsilon_rf               = 0
vdw_type                 = cutoff  
vdw-modifier             = Potential-shift-verlet
rvdw                     = 1.1

tcoupl                   = v-rescale 
; FIX 2: Separate temperature coupling to prevent the hot-solvent/cold-solute effect.
; (Requires a 'W_ION' group in your index file, see instructions below).
tc-grps                  = Protein_XXX W_ION
tau-t                    = 1.0 1.0
ref-t                    = 300 300

continuation             = yes
gen-vel                  = no

Pcoupl                   = parrinello-rahman 
; FIX 3: Changed from semiisotropic to isotropic. 
; Since you do not have a lipid membrane, the box must scale uniformly in all directions.
Pcoupltype               = isotropic
tau-p                    = 12.0
compressibility          = 3e-4
ref-p                    = 1.0
